# OOMMF OVF 2.0
#
# Segment count: 000001
#
# Begin: Segment
# Begin: Header
#
# Title: SPIRIT Version 2.1.1 (945e3d50e1187)
#
# Desc: 
#
# valuedim: 3   ## field dimensionality
# valueunits: none none none
# valuelabels: spin_x spin_y spin_z
#
## Fundamental mesh measurement unit. Treated as a label:
# meshunit: nm
#
# xmin: 0
# ymin: -2.45
# zmin: 0
# xmax: 8.48705
# ymax: 2.45
# zmax: 0
#
# meshtype: rectangular
# xbase: 0
# ybase: 0
# zbase: 0
# xstepsize: 0.0866025
# ystepsize: 0.05
# zstepsize: 0.1
# xnodes: 50
# ynodes: 50
# znodes: 1
#
# End: Header
#
# Begin: Data Text
        0.000149707632        0.000002607159        0.999999988790
        0.000346861664        0.001378915212        0.999998989139
        0.000561217939        0.002702708137        0.999996190194
        0.000807070442        0.003941155940        0.999991907931
        0.001095481987        0.005065523170        0.999986570107
        0.001433177266        0.006052245633        0.999980657976
        0.001821749361        0.006883616236        0.999974648207
        0.002257221769        0.007548066205        0.999968965342
        0.002729981737        0.008040064431        0.999963951632
        0.003225081466        0.008359685895        0.999959856445
        0.003722889510        0.008511918662        0.999956842736
        0.004200062219        0.008505788218        0.999955004510
        0.004630791517        0.008353379865        0.999954387367
        0.004988270086        0.008068836183        0.999955004510
        0.005246299845        0.007667398740        0.999956842736
        0.005380956919        0.007164551709        0.999959856445
        0.005372218217        0.006575310452        0.999963951632
        0.005205451661        0.005913681282        0.999968965342
        0.004872673547        0.005192301556        0.999974648207
        0.004373481428        0.004422254424        0.999980657976
        0.003715579716        0.003613042053        0.999986570107
        0.002914829728        0.002772695490        0.999991907931
        0.001994779119        0.001907997106        0.999996190194
        0.000985659801        0.001024790151        0.999998989139
       -0.000077111731        0.000128347046        0.999999988790
       -0.001154846534       -0.000776236389        0.999999031893
       -0.002207772987       -0.001683657192        0.999996145511
       -0.003197331277       -0.002588067052        0.999991539455
       -0.004088382105       -0.003482805689        0.999985577494
       -0.004851146929       -0.004360216077        0.999978727218
       -0.005462729322       -0.005211534202        0.999971498844
       -0.005908116781       -0.006026833963        0.999964385080
       -0.006180619626       -0.006795006949        0.999957813021
       -0.006281758135       -0.007503768302        0.999952115342
       -0.006220653371       -0.008139699781        0.999947523003
       -0.006013007839       -0.008688361740        0.999944176495
       -0.005679779547       -0.009134519009        0.999942148660
       -0.005245659501       -0.009462526193        0.999941470114
       -0.004737460629       -0.009656904263        0.999942148660
       -0.004182517417       -0.009703115011        0.999944176495
       -0.003607181135       -0.009588507963        0.999947523003
       -0.003035477216       -0.009303381203        0.999952115342
       -0.002487971782       -0.008842068452        0.999957813021
       -0.001980877522       -0.008203943895        0.999964385080
       -0.001525418630       -0.007394227346        0.999971498844
       -0.001127471509       -0.006424478066        0.999978727219
       -0.000787499994       -0.005312687376        0.999985577494
       -0.000500805064       -0.004082917143        0.999991539455
       -0.000258102371       -0.002764479351        0.999996145511
       -0.000046421828       -0.001390704268        0.999999031893
        0.000394664368       -0.001366001539        0.999998989139
        0.000569405822        0.000009916199        0.999999837839
        0.000748727743        0.001318888614        0.999998849969
        0.000947615084        0.002529471915        0.999996351892
        0.001177821479        0.003615479290        0.999992770497
        0.001446610755        0.004556704115        0.999988571817
        0.001755858370        0.005339204610        0.999984204803
        0.002101577550        0.005955203641        0.999980059262
        0.002473895818        0.006402674360        0.999976442523
        0.002857473845        0.006684685383        0.999973574563
        0.003232330956        0.006808573843        0.999971597276
        0.003575019326        0.006785006744        0.999970591028
        0.003860071379        0.006626984881        0.999970591028
        0.004061632296        0.006348841170        0.999971597276
        0.004155182196        0.005965285931        0.999973574563
        0.004119250633        0.005490553118        0.999976442523
        0.003937028266        0.004937700563        0.999980059262
        0.003597785070        0.004318111494        0.999984204803
        0.003098009047        0.003641232597        0.999988571817
        0.002442183517        0.002914565739        0.999992770497
        0.001643126083        0.002143907433        0.999996351892
        0.000721822542        0.001333803803        0.999998849969
       -0.000293290640        0.000488161820        0.999999837839
       -0.001367606484       -0.000389066580        0.999998989139
       -0.002462150605       -0.001293227165        0.999996132681
       -0.003535805296       -0.002218434640        0.999991288276
       -0.004547789183       -0.003157256557        0.999984674555
       -0.005460176776       -0.004100654803        0.999976685278
       -0.006240219387       -0.005038174034        0.999967837715
       -0.006862242692       -0.005958307713        0.999958703245
       -0.007308946872       -0.006848928258        0.999949834480
       -0.007572013239       -0.007697654141        0.999941703669
       -0.007652010263       -0.008492050889        0.999934663771
       -0.007557674373       -0.009219619818        0.999928937559
       -0.007304702581       -0.009867602285        0.999924633033
       -0.006914227686       -0.010422697084        0.999921777361
       -0.006411151850       -0.010870834814        0.999920357870
       -0.005822495081       -0.011197163417        0.999920357870
       -0.005175878313       -0.011386370913        0.999921777361
       -0.004498214023       -0.011423411272        0.999924633033
       -0.003814628778       -0.011294619895        0.999928937559
       -0.003147600449       -0.010989121917        0.999934663771
       -0.002516266602       -0.010500365033        0.999941703669
       -0.001935856260       -0.009827562404        0.999949834481
       -0.001417216190       -0.008976820340        0.999958703245
       -0.000966439377       -0.007961754210        0.999967837715
       -0.000584644780       -0.006803461642        0.999976685278
       -0.000267987408       -0.005529813541        0.999984674555
       -0.000007982405       -0.004174123539        0.999991288277
        0.000207799962       -0.002773344742        0.999996132682
        0.000654984370       -0.002681527981        0.999996190194
        0.000794196672       -0.001292018595        0.999998849969
        0.000926247177        0.000016130589        0.999999570903
        0.001067158506        0.001211845115        0.999998696301
        0.001229586817        0.002270858346        0.999996665654
        0.001421403982        0.003176077438        0.999993946053
        0.001644728815        0.003917426647        0.999990974277
        0.001895472782        0.004491291253        0.999988117672
        0.002163411400        0.004899684135        0.999985656270
        0.002432749471        0.005149239388        0.999983783400
        0.002683117469        0.005250114056        0.999982618440
        0.002890916540        0.005214858837        0.999982223766
        0.003030918768        0.005057306431        0.999982618440
        0.003078025728        0.004791523120        0.999983783400
        0.003009089404        0.004430872867        0.999985656270
        0.002804702887        0.003987249150        0.999988117672
        0.002450870756        0.003470532643        0.999990974277
        0.001940468451        0.002888328108        0.999993946053
        0.001274395268        0.002246018255        0.999996665654
        0.000462319006        0.001547144785        0.999998696301
       -0.000477093134        0.000794088303        0.999999570903
       -0.001516554964       -0.000011027049        0.999998849969
       -0.002621222923       -0.000865325063        0.999996190194
       -0.003750455020       -0.001764223718        0.999991410764
       -0.004860203110       -0.002700711667        0.999984542172
       -0.005905877105       -0.003665013886        0.999975843853
       -0.006845423284       -0.004644747584        0.999965782665
       -0.007642288804       -0.005625573039        0.999954973161
       -0.008267924779       -0.006592226266        0.999944090423
       -0.008703525148       -0.007529712299        0.999933773848
       -0.008940804752       -0.008424374960        0.999924543112
       -0.008981766559       -0.009264567661        0.999916744362
       -0.008837562435       -0.010040735865        0.999910536555
       -0.008526680464       -0.010744866637        0.999905917355
       -0.008072769619       -0.011369426942        0.999902778535
       -0.007502428142       -0.011906056165        0.999900974796
       -0.006843238451       -0.012344362637        0.999900388438
       -0.006122242347       -0.012671177926        0.999900974796
       -0.005364935993       -0.012870545444        0.999902778535
       -0.004594747042       -0.012924578843        0.999905917355
       -0.003832859166       -0.012815150288        0.999910536555
       -0.003098191502       -0.012526194698        0.999916744362
       -0.002407335679       -0.012046278166        0.999924543112
       -0.001774303639       -0.011371005386        0.999933773849
       -0.001210034022       -0.010504848618        0.999944090424
       -0.000721718598       -0.009462070173        0.999954973161
       -0.000312110042       -0.008266564394        0.999965782665
        0.000020973071       -0.006950630967        0.999975843853
        0.000284736930       -0.005552867930        0.999984542172
        0.000490962025       -0.004115501687        0.999991410764
        0.000943809832       -0.003910664371        0.999991907931
        0.001035115225       -0.002494942680        0.999996351892
        0.001108707151       -0.001173952429        0.999998696301
        0.001182104368        0.000020586340        0.999999301102
        0.001269138756        0.001065713699        0.999998626770
        0.001378358433        0.001947156326        0.999997154351
        0.001512009390        0.002658632631        0.999995322739
        0.001665639928        0.003200740078        0.999993490432
        0.001828306607        0.003579605017        0.999991921829
        0.001983316221        0.003805436298        0.999990792513
        0.002109413609        0.003891083561        0.999990204874
        0.002182315594        0.003850669512        0.999990204874
        0.002176491825        0.003698347191        0.999990792513
        0.002067098497        0.003447227999        0.999991921829
        0.001831975873        0.003108529838        0.999993490432
        0.001453621010        0.002691000886        0.999995322739
        0.000921039811        0.002200676114        0.999997154351
        0.000231366835        0.001641014403        0.999998626770
       -0.000608880520        0.001013439254        0.999999301102
       -0.001583067953        0.000318263829        0.999998696301
       -0.002664394525       -0.000444077209        0.999996351892
       -0.003816676432       -0.001271634451        0.999991907931
       -0.004996061049       -0.002159600147        0.999985187641
       -0.006153671073       -0.003099271403        0.999976263143
       -0.007239041003       -0.004077582347        0.999965484208
       -0.008204049147       -0.005077411547        0.999953455652
       -0.009006902898       -0.006078744348        0.999940960541
       -0.009615647522       -0.007060583287        0.999928841211
       -0.010010678609       -0.008003291913        0.999917863443
       -0.010185862956       -0.008890888755        0.999908595969
       -0.010148095656       -0.009712742059        0.999901334531
       -0.009915394829       -0.010464191333        0.999896087424
       -0.009513894975       -0.011145835334        0.999892622314
       -0.008974284407       -0.011761529963        0.999890558327
       -0.008328301520       -0.012315456504        0.999889478355
       -0.007605847982       -0.012808868783        0.999889035822
       -0.006833112057       -0.013237243770        0.999889035822
       -0.006031860809       -0.013588514647        0.999889478355
       -0.005219806062       -0.013842867925        0.999890558327
       -0.004411727896       -0.013974279939        0.999892622314
       -0.003620896834       -0.013953618201        0.999896087424
       -0.002860302967       -0.013752813186        0.999901334531
       -0.002143285893       -0.013349383219        0.999908595969
       -0.001483345055       -0.012730516673        0.999917863443
       -0.000893150518       -0.011895999131        0.999928841212
       -0.000383006331       -0.010859499911        0.999940960541
        0.000040821440       -0.009648049724        0.999953455652
        0.000377456303       -0.008299874615        0.999965484208
        0.000632067886       -0.006861023290        0.999976263143
        0.000815633006       -0.005381379114        0.999985187641
        0.001271196310       -0.005024307483        0.999986570107
        0.001302996179       -0.003572275868        0.999992770497
        0.001307911200       -0.002226667835        0.999996665654
        0.001305476713       -0.001020876788        0.999998626770
        0.001310933973        0.000022829906        0.999999140465
        0.001333445984        0.000892651178        0.999998712547
        0.001375063410        0.001585886857        0.999997797079
        0.001430441033        0.002107160967        0.999996756850
        0.001487236880        0.002466475754        0.999995852303
        0.001527090183        0.002677274815        0.999995250086
        0.001527063646        0.002754635521        0.999995040018
        0.001461440701        0.002713668353        0.999995250086
        0.001303780332        0.002568176981        0.999995852303
        0.001029142208        0.002329625547        0.999996756850
        0.000616396465        0.002006462533        0.999997797079
        0.000050520881        0.001603855350        0.999998712547
       -0.000675238305        0.001123887181        0.999999140465
       -0.001557504557        0.000566249565        0.999998626770
       -0.002581414468       -0.000070575742        0.999996665654
       -0.003720007697       -0.000787716311        0.999992770497
       -0.004934612788       -0.001584046340        0.999986570107
       -0.006176439217       -0.002454314668        0.999977913725
       -0.007389482554       -0.003387604139        0.999966959297
       -0.008514675283       -0.004366512708        0.999954215888
       -0.009494983216       -0.005367423429        0.999940516261
       -0.010280895190       -0.006362103236        0.999926910747
       -0.010835545932       -0.007320627551        0.999914496023
       -0.011138625105       -0.008215296532        0.999904215379
       -0.011188320823       -0.009024866247        0.999896681296
       -0.011000837487       -0.009738177048        0.999892068917
       -0.010607466641       -0.010356228680        0.999890109051
       -0.010049673177       -0.010891979332        0.999890178397
       -0.009373065669       -0.011367602525        0.999891455735
       -0.008621345334       -0.011809514114        0.999893098177
       -0.007831317918       -0.012242032657        0.999894395972
       -0.007029810532       -0.012680915798        0.999894882544
       -0.006232918146       -0.013128123834        0.999894395972
       -0.005447506194       -0.013568968104        0.999893098176
       -0.004674425143       -0.013972347583        0.999891455735
       -0.003912552232       -0.014294162444        0.999890178397
       -0.003162639566       -0.014483353622        0.999890109051
       -0.002430047758       -0.014489492247        0.999892068917
       -0.001725757317       -0.014270546424        0.999896681296
       -0.001065500232       -0.013799448373        0.999904215380
       -0.000467326823       -0.013068368248        0.999914496023
        0.000051706167       -0.012090098821        0.999926910747
        0.000478868219       -0.010896541892        0.999940516261
        0.000808313696       -0.009534818131        0.999954215888
        0.001042331957       -0.008061876813        0.999966959297
        0.001191113331       -0.006538601563        0.999977913725
        0.001643043925       -0.005998673262        0.999980657976
        0.001604395374       -0.004503570865        0.999988571817
        0.001531131260       -0.003124659057        0.999993946053
        0.001445321486       -0.001897981960        0.999997154351
        0.001363719009       -0.000845680068        0.999998712547
        0.001295820842        0.000022566711        0.999999160169
        0.001242890888        0.000707352227        0.999998977437
        0.001197878098        0.001217002164        0.999998541996
        0.001146104454        0.001564976581        0.999998118645
        0.001066579581        0.001767425278        0.999997869306
        0.000933808055        0.001841028688        0.999997869306
        0.000719976868        0.001801205272        0.999998118645
        0.000397430717        0.001660739305        0.999998541996
       -0.000058648667        0.001428875536        0.999998977437
       -0.000667453802        0.001110930423        0.999999160169
       -0.001439781627        0.000708472518        0.999998712547
       -0.002375466100        0.000220115266        0.999997154351
       -0.003461265779       -0.000357066749        0.999993946053
       -0.004669526943       -0.001025550381        0.999988571817
       -0.005957987145       -0.001784954882        0.999980657976
       -0.007271076493       -0.002629486729        0.999970108176
       -0.008542984757       -0.003545650910        0.999957221971
       -0.009702569047       -0.004510757217        0.999942754973
       -0.010679875656       -0.005492797442        0.999927882116
       -0.011413669776       -0.006452191620        0.999914044989
       -0.011858980958       -0.007345649843        0.999902698266
       -0.011993394032       -0.008131958001        0.999895009368
       -0.011820774299       -0.008778929682        0.999891593968
       -0.011371402797       -0.009270221406        0.999892371305
       -0.010698107324       -0.009610390118        0.999896590104
       -0.009868785733       -0.009826655501        0.999903017252
       -0.008956524093       -0.009966371337        0.999910222029
       -0.008029094342       -0.010090109746        0.999916858208
       -0.007139811749       -0.010261295167        0.999921861402
       -0.006321481960       -0.010534216727        0.999924531724
       -0.005584524149       -0.010942757712        0.999924531724
       -0.004919468841       -0.011492167632        0.999921861402
       -0.004303100555       -0.012155656981        0.999916858208
       -0.003706759309       -0.012876638435        0.999910222029
       -0.003104904601       -0.013576290294        0.999903017252
       -0.002482074839       -0.014165041600        0.999896590104
       -0.001836834478       -0.014555818287        0.999892371305
       -0.001182074529       -0.014676614441        0.999891593968
       -0.000541921169       -0.014480212804        0.999895009368
        0.000053720406       -0.013949591927        0.999902698266
        0.000575505166       -0.013098527700        0.999914044989
        0.001000356523       -0.011967867566        0.999927882116
        0.001315388366       -0.010618687755        0.999942754973
        0.001519478644       -0.009123892424        0.999957221971
        0.001622546563       -0.007559768244        0.999970108177
        0.002060328244       -0.006816009883        0.999974648207
        0.001940701683       -0.005274829043        0.999984204803
        0.001780134025       -0.003857782685        0.999990974277
        0.001603664595       -0.002604373191        0.999995322739
        0.001429449266       -0.001537046289        0.999997797079
        0.001266766821       -0.000663646555        0.999998977437
        0.001115228656        0.000019421699        0.999999377944
        0.000965037096        0.000523803179        0.999999397167
        0.000798102572        0.000865913496        0.999999306613
        0.000589839956        0.001063998955        0.999999259997
        0.000311497327        0.001135668669        0.999999306613
       -0.000067093679        0.001095976658        0.999999397167
       -0.000574434045        0.000956105509        0.999999377944
       -0.001234030476        0.000722698980        0.999998977437
       -0.002060950048        0.000397896427        0.999997797079
       -0.003058448132       -0.000019877762        0.999995322739
       -0.004214955443       -0.000534336375        0.999990974277
       -0.005501816056       -0.001148984338        0.999984204803
       -0.006872261254       -0.001864126877        0.999974648207
       -0.008262148840       -0.002673498875        0.999962293939
       -0.009592951781       -0.003560969370        0.999947646016
       -0.010777301233       -0.004497971311        0.999931806691
       -0.011727047830       -0.005442460662        0.999916424493
       -0.012363304331       -0.006340243868        0.999903470348
       -0.012627330401       -0.007129337149        0.999894856012
       -0.012490546988       -0.007747556969        0.999891974964
       -0.011961622608       -0.008142775310        0.999895301917
       -0.011088673877       -0.008284323805        0.999904201057
       -0.009955297184       -0.008173182796        0.999917042129
       -0.008670334395       -0.007848217137        0.999931613056
       -0.007352699739       -0.007386098018        0.999945690207
       -0.006113862692       -0.006893705859        0.999957547850
       -0.005041317975       -0.006493487606        0.999966209295
       -0.004186345844       -0.006303996097        0.999971366661
       -0.003558547984       -0.006419184032        0.999973065044
       -0.003128218669       -0.006890580996        0.999971366661
       -0.002835916524       -0.007716077116        0.999966209295
       -0.002607048619       -0.008837748331        0.999957547850
       -0.002368242322       -0.010149288963        0.999945690206
       -0.002062010728       -0.011511616890        0.999931613056
       -0.001656771812       -0.012773565169        0.999917042129
       -0.001150508323       -0.013793659440        0.999904201056
       -0.000567929350       -0.014458999347        0.999895301916
        0.000047502867       -0.014698168150        0.999891974964
        0.000644284124       -0.014486608275        0.999894856012
        0.001173612118       -0.013844588139        0.999903470348
        0.001597892227       -0.012829293391        0.999916424493
        0.001895680236       -0.011523383343        0.999931806691
        0.002062813613       -0.010022476046        0.999947646016
        0.002110341266       -0.008423607233        0.999962293940
        0.002518672355       -0.007464894044        0.999968965342
        0.002307659958       -0.005878416802        0.999980059262
        0.002050707581       -0.004422568550        0.999988117672
        0.001776077844       -0.003140802588        0.999993490432
        0.001502943774       -0.002056076091        0.999996756850
        0.001239527043       -0.001174554771        0.999998541996
        0.000982690442       -0.000489883518        0.999999397167
        0.000718726707        0.000012516621        0.999999741638
        0.000425089948        0.000351490418        0.999999847876
        0.000072861205        0.000546752444        0.999999847876
       -0.000370203094        0.000616177290        0.999999741638
       -0.000936145440        0.000573845064        0.999999397167
       -0.001652893873        0.000428891793        0.999998541996
       -0.002540075480        0.000185217802        0.999996756850
       -0.003604742221       -0.000157883536        0.999993490432
       -0.004837308752       -0.000604118032        0.999988117672
       -0.006208146454       -0.001157582260        0.999980059262
       -0.007665428009       -0.001819221693        0.999968965341
       -0.009134933542       -0.002582577280        0.999954940627
       -0.010522559784       -0.003429265716        0.999938756061
       -0.011720155492       -0.004324914668        0.999921963489
       -0.012614978841       -0.005216557469        0.999906820577
       -0.013102496893       -0.006032698613        0.999895960149
       -0.013101438347       -0.006687267618        0.999891810530
       -0.012569074351       -0.007088334913        0.999895881519
       -0.011513867582       -0.007151640791        0.999908138224
       -0.010002242828       -0.006817672848        0.999926734554
       -0.008156660039       -0.006069446991        0.999948314019
       -0.006143587827       -0.004946850058        0.999968892018
       -0.004152173080       -0.003553062693        0.999985067491
       -0.002366802238       -0.002049617913        0.999995098645
       -0.000938620938       -0.000638966371        0.999999355356
        0.000038187784        0.000463577214        0.999999891819
        0.000540259137        0.001063791466        0.999999288234
        0.000615934506        0.001021839951        0.999999288234
        0.000372921629        0.000278013655        0.999999891819
       -0.000044571790       -0.001134592774        0.999999355356
       -0.000484208299       -0.003093255423        0.999995098645
       -0.000813284528       -0.005404013765        0.999985067490
       -0.000940188704       -0.007831413865        0.999968892017
       -0.000825623600       -0.010133490845        0.999948314019
       -0.000482302415       -0.012095160617        0.999926734553
        0.000035398890       -0.013554108632        0.999908138224
        0.000648190698       -0.014415476808        0.999895881518
        0.001270405841       -0.014654463636        0.999891810530
        0.001826100499       -0.014308537118        0.999895960149
        0.002259950007       -0.013462644194        0.999906820577
        0.002542020513       -0.012231314847        0.999921963490
        0.002667064263       -0.010741084459        0.999938756061
        0.002649897135       -0.009115632768        0.999954940627
        0.003008276746       -0.007940132702        0.999963951632
        0.002695333133       -0.006312652276        0.999976442523
        0.002332703732       -0.004821384323        0.999985656270
        0.001951837744       -0.003513773831        0.999991921829
        0.001572216315       -0.002413195398        0.999995852303
        0.001199901063       -0.001524120912        0.999998118645
        0.000827769228       -0.000837598950        0.999999306613
        0.000437070876       -0.000336475893        0.999999847876
       -0.000000000019        0.000000000000        1.000000000000
       -0.000516944636        0.000192393500        0.999999847876
       -0.001148954403        0.000258220368        0.999999306613
       -0.001928361737        0.000210067295        0.999998118645
       -0.002879649137        0.000054747055        0.999995852303
       -0.004014182222       -0.000206442528        0.999991921829
       -0.005324956672       -0.000576272822        0.999985656270
       -0.006781826598       -0.001058880540        0.999976442523
       -0.008327890953       -0.001655798662        0.999963951632
       -0.009877916494       -0.002360856726        0.999948425231
       -0.011319812335       -0.003154323094        0.999930953664
       -0.012520164197       -0.003996999010        0.999913631014
       -0.013334594908       -0.004825384985        0.999899447064
       -0.013623153646       -0.005549453334        0.999891800773
       -0.013269997322       -0.006054844166        0.999893617358
       -0.012205346059       -0.006211255471        0.999906220519
       -0.010426254731       -0.005888173179        0.999928308745
       -0.008011539087       -0.004977664860        0.999955518058
       -0.005125832626       -0.003421716767        0.999981008667
       -0.002008862884       -0.001238961294        0.999997214719
        0.001051160768        0.001456310100        0.999998387110
        0.003757214369        0.004449998768        0.999983040282
        0.005849453935        0.007443631770        0.999955187113
        0.007148272472        0.010089645747        0.999923547702